REMARK  Name = Albuterol
REMARK  11 active torsions:
REMARK  status: ('A' for Active; 'I' for Inactive)
REMARK    1  A    between atoms: C_1  and  C_2
REMARK    2  A    between atoms: C_2  and  C_3
REMARK    3  A    between atoms: C_2  and  C_4
REMARK    4  A    between atoms: C_2  and  N_5
REMARK    5  A    between atoms: N_5  and  C_6
REMARK    6  A    between atoms: C_6  and  C_7
REMARK    7  A    between atoms: C_7  and  O_8
REMARK    8  A    between atoms: C_7  and  C_9
REMARK    9  A    between atoms: C_11  and  C_12
REMARK   10  A    between atoms: C_12  and  O_13
REMARK   11  A    between atoms: C_14  and  O_15
REMARK                            x       y       z     vdW  Elec       q    Type
REMARK                         _______ _______ _______ _____ _____    ______ ____
ROOT
ATOM      1  C   UNL A   1       6.630  -2.611   0.848  0.00  0.00    -0.017 A 
ATOM      2  C   UNL A   1       7.416  -2.429  -0.304  0.00  0.00    +0.015 A 
ATOM      3  C   UNL A   1       8.819  -2.483  -0.239  0.00  0.00    +0.020 A 
ATOM      4  C   UNL A   1       9.444  -2.731   1.007  0.00  0.00    +0.122 A 
ATOM      5  C   UNL A   1       8.658  -2.911   2.150  0.00  0.00    +0.046 A 
ATOM      6  C   UNL A   1       7.266  -2.851   2.074  0.00  0.00    +0.010 A 
ENDROOT
BRANCH   4   7
ATOM      7  O   UNL A   1      10.786  -2.805   1.138  0.00  0.00    -0.506 OA
ATOM      8  H   UNL A   1      11.405  -2.709   0.402  0.00  0.00    +0.292 HD
ENDBRANCH   4   7
BRANCH   1   9
ATOM      9  C   UNL A   1       5.115  -2.548   0.778  0.00  0.00    +0.158 C 
BRANCH   9  10
ATOM     10  O   UNL A   1       4.622  -3.573  -0.051  0.00  0.00    -0.386 OA
ATOM     11  H   UNL A   1       4.847  -3.345  -0.991  0.00  0.00    +0.210 HD
ENDBRANCH   9  10
BRANCH   9  12
ATOM     12  C   UNL A   1       4.623  -1.158   0.321  0.00  0.00    +0.117 C 
BRANCH  12  13
ATOM     13  N   UNL A   1       3.150  -1.100   0.350  0.00  0.00    -0.309 NA
ATOM     14  H   UNL A   1       2.774  -1.837  -0.293  0.00  0.00    +0.123 HD
BRANCH  13  16
ATOM     15  C   UNL A   1       2.848   0.600  -1.466  0.00  0.00    +0.027 C 
ATOM     16  C   UNL A   1       2.534   0.204  -0.005  0.00  0.00    +0.011 C 
ATOM     17  C   UNL A   1       2.997   1.328   0.948  0.00  0.00    +0.027 C 
ATOM     18  C   UNL A   1       1.006   0.055   0.143  0.00  0.00    +0.027 C 
ENDBRANCH  13  16
ENDBRANCH  12  13
ENDBRANCH   9  12
ENDBRANCH   1   9
BRANCH   3  19
ATOM     19  C   UNL A   1       9.621  -2.276  -1.502  0.00  0.00    +0.194 C 
BRANCH  19  20
ATOM     20  O   UNL A   1      10.455  -1.156  -1.377  0.00  0.00    -0.390 OA
ATOM     21  H   UNL A   1       9.868  -0.357  -1.452  0.00  0.00    +0.210 HD
ENDBRANCH  19  20
ENDBRANCH   3  19
TORSDOF 8
